# vtk DataFile Version 3.0
Triangulation generated with deal.II
ASCII
DATASET UNSTRUCTURED_GRID
POINTS 73 double
-1 -1 0
0 -1 0
1 -1 0
-1 0 0
0 0 0
1 0 0
-1 1 0
0 1 0
-0.5 -1 0
-1 -0.5 0
0.5 -1 0
0 -0.5 0
1 -0.5 0
-0.5 0 0
-1 0.5 0
0.5 0 0
0 0.5 0
-0.5 1 0
-0.5 -0.5 0
0.5 -0.5 0
-0.5 0.5 0
0 -0.25 0
-0.25 0 0
0.25 0 0
0 0.25 0
-0.5 -0.25 0
-0.25 -0.5 0
0.5 -0.25 0
0.25 -0.5 0
-0.5 0.25 0
-0.25 0.5 0
-0.25 -0.25 0
0.25 -0.25 0
-0.25 0.25 0
0 -0.125 0
-0.125 0 0
0.125 0 0
0 0.125 0
-0.25 -0.125 0
-0.125 -0.25 0
0.25 -0.125 0
0.125 -0.25 0
-0.25 0.125 0
-0.125 0.25 0
-0.125 -0.125 0
0.125 -0.125 0
-0.125 0.125 0
0 -0.0625 0
-0.0625 0 0
0.0625 0 0
0 0.0625 0
-0.125 -0.0625 0
-0.0625 -0.125 0
0.125 -0.0625 0
0.0625 -0.125 0
-0.125 0.0625 0
-0.0625 0.125 0
-0.0625 -0.0625 0
0.0625 -0.0625 0
-0.0625 0.0625 0
0 -0.03125 0
-0.03125 0 0
0.03125 0 0
0 0.03125 0
-0.0625 -0.03125 0
-0.03125 -0.0625 0
0.0625 -0.03125 0
0.03125 -0.0625 0
-0.0625 0.03125 0
-0.03125 0.0625 0
-0.03125 -0.03125 0
0.03125 -0.03125 0
-0.03125 0.03125 0

CELLS 48 240
4 0 8 18 9
4 8 1 11 18
4 9 18 13 3
4 1 10 19 11
4 10 2 12 19
4 19 12 5 15
4 3 13 20 14
4 14 20 17 6
4 20 16 7 17
4 18 26 31 25
4 26 11 21 31
4 25 31 22 13
4 11 28 32 21
4 28 19 27 32
4 32 27 15 23
4 13 22 33 29
4 29 33 30 20
4 33 24 16 30
4 31 39 44 38
4 39 21 34 44
4 38 44 35 22
4 21 41 45 34
4 41 32 40 45
4 45 40 23 36
4 22 35 46 42
4 42 46 43 33
4 46 37 24 43
4 44 52 57 51
4 52 34 47 57
4 51 57 48 35
4 34 54 58 47
4 54 45 53 58
4 58 53 36 49
4 35 48 59 55
4 55 59 56 46
4 59 50 37 56
4 57 65 70 64
4 65 47 60 70
4 64 70 61 48
4 70 60 4 61
4 47 67 71 60
4 67 58 66 71
4 60 71 62 4
4 71 66 49 62
4 48 61 72 68
4 61 4 63 72
4 68 72 69 59
4 72 63 50 69

CELL_TYPES 48
9 9 9 9 9 9 9 9 9 9 9 9 9 9 9 9 9 9 9 9 9 9 9 9 9 9 9 9 9 9 9 9 9 9 9 9 9 9 9 9 9 9 9 9 9 9 9 9 



CELL_DATA 48
SCALARS MaterialID int 1
LOOKUP_TABLE default
0 0 0 0 0 0 0 0 0 0 0 0 0 0 0 0 0 0 0 0 0 0 0 0 0 0 0 0 0 0 0 0 0 0 0 0 0 0 0 0 0 0 0 0 0 0 0 0 



SCALARS ManifoldID int 1
LOOKUP_TABLE default
-1 -1 -1 -1 -1 -1 -1 -1 -1 -1 -1 -1 -1 -1 -1 -1 -1 -1 -1 -1 -1 -1 -1 -1 -1 -1 -1 -1 -1 -1 -1 -1 -1 -1 -1 -1 -1 -1 -1 -1 -1 -1 -1 -1 -1 -1 -1 -1 


